/*--------------------------------*- C++ -*----------------------------------*\
  =========                 |
  \\      /  F ield         | OpenFOAM: The Open Source CFD Toolbox
   \\    /   O peration     | Website:  https://openfoam.org
    \\  /    A nd           | Version:  9
     \\/     M anipulation  |
\*---------------------------------------------------------------------------*/
FoamFile
{
    format      ascii;
    class       pointScalarField;
    location    "0";
    object      motionScale;
}
// * * * * * * * * * * * * * * * * * * * * * * * * * * * * * * * * * * * * * //

dimensions      [0 0 0 0 0 0 0];

internalField   nonuniform List<scalar> 
7344
(
1
1
1
1
1
1
1
1
1
1
1
1
1
1
1
1
1
1
1
1
0.999999865
0.9999999952
1
1
1
0.9999999926
0.9999999506
0.9999998927
0.9999998883
0.999999975
0.999999865
0.9999999952
1
1
1
0.9999999926
0.9999999506
0.9999998927
0.9999998883
0.999999975
0.9999729975
0.9999791515
0.9999818158
0.9999822358
0.9999810832
0.9999788401
0.9999761048
0.9999738773
0.9999737326
0.9999774119
0.9999729975
0.9999791515
0.9999818158
0.9999822358
0.9999810832
0.9999788401
0.9999761048
0.9999738773
0.9999737326
0.9999774119
0.9998873404
0.9999075998
0.9999165929
0.9999180331
0.999914124
0.9999103384
0.9999095955
0.9998958544
0.9998897706
0.9999018466
0.9998873404
0.9999075998
0.9999165929
0.9999180331
0.999914124
0.9999103384
0.9999095955
0.9998958544
0.9998897706
0.9999018466
0.9997213733
0.9997666314
0.9997869045
0.9997901819
0.9997813767
0.9997912721
0.9997751813
0.9997436037
0.9997268805
0.9997538232
0.9997213733
0.9997666314
0.9997869045
0.9997901819
0.9997813767
0.9997912721
0.9997751813
0.9997436037
0.9997268805
0.9997538232
0.9994472557
0.9995319988
0.9995701534
0.9995763744
0.9995881993
0.9995835689
0.9995438881
0.9994875058
0.9994577598
0.9995081665
0.9994472557
0.9995319988
0.9995701534
0.9995763744
0.9995881993
0.9995835689
0.9995438881
0.9994875058
0.9994577598
0.9995081665
0.9990291147
0.999172396
0.99923714
0.9992477873
0.9992846702
0.9992551096
0.9991819334
0.9990923206
0.9990472609
0.9991324291
0.9990291147
0.999172396
0.99923714
0.9992477873
0.9992846702
0.9992551096
0.9991819334
0.9990923206
0.9990472609
0.9991324291
0.9984208898
0.9986475385
0.9987502545
0.998799223
0.9988302595
0.9987654378
0.9986464363
0.9985131057
0.9984503005
0.9985849385
0.9984208898
0.9986475385
0.9987502545
0.998799223
0.9988302595
0.9987654378
0.9986464363
0.9985131057
0.9984503005
0.9985849385
0.9975636285
0.9979057396
0.9980611922
0.9981664682
0.9981759746
0.998063023
0.9978826784
0.9976924829
0.9976092421
0.9978123421
0.9975636285
0.9979057396
0.9980611922
0.9981664682
0.9981759746
0.998063023
0.9978826784
0.9976924829
0.9976092421
0.9978123421
0.9963821009
0.9968808599
0.9971080682
0.9972795528
0.9972593287
0.9970821154
0.9968208743
0.9965573338
0.9964506277
0.9967465332
0.9963821009
0.9968808599
0.9971080682
0.9972795528
0.9972593287
0.9970821154
0.9968208743
0.9965573338
0.9964506277
0.9967465332
0.9947805777
0.995488475
0.9958117844
0.996060683
0.9960006103
0.9957389178
0.9953722085
0.9950147228
0.9948811133
0.9953008104
0.9947805777
0.995488475
0.9958117844
0.996060683
0.9960006103
0.9957389178
0.9953722085
0.9950147228
0.9948811133
0.9953008104
0.9926375875
0.993621078
0.9940714629
0.9944106828
0.9942982735
0.9939268501
0.9934239348
0.9929468612
0.9927824388
0.9933651021
0.9926375875
0.993621078
0.9940714629
0.9944106828
0.9942982735
0.9939268501
0.9934239348
0.9929468612
0.9927824388
0.9933651021
0.9897994453
0.9911420982
0.9918772409
0.9922033108
0.992023211
0.9915106846
0.9908333283
0.990204913
0.9900052392
0.9908000568
0.9897994453
0.9911420982
0.9918772409
0.9922033108
0.992023211
0.9915106846
0.9908333283
0.990204913
0.9900052392
0.9908000568
0.9860723191
0.9878784823
0.9888996093
0.9892781937
0.9890116532
0.9883193066
0.9874202641
0.9866014296
0.9863614901
0.9874297773
0.9860723191
0.9878784823
0.9888996093
0.9892781937
0.9890116532
0.9883193066
0.9874202641
0.9866014296
0.9863614901
0.9874297773
0.9812126015
0.9836115586
0.9849870683
0.9854320764
0.9850564059
0.9841368405
0.9829581872
0.9819011996
0.9816153793
0.9830329658
0.9812126015
0.9836115586
0.9849870683
0.9854320764
0.9850564059
0.9841368405
0.9829581872
0.9819011996
0.9816153793
0.9830329658
0.9749153712
0.978065893
0.9798789146
0.9804080618
0.9798961261
0.9786918732
0.9771632492
0.9758103263
0.9754724239
0.9773322526
0.9749153712
0.978065893
0.9798789146
0.9804080618
0.9798961261
0.9786918732
0.9771632492
0.9758103263
0.9754724239
0.9773322526
0.9668008142
0.9708958715
0.9732467669
0.9738825193
0.9732023432
0.9716445436
0.9696814469
0.9676568204
0.9675667371
0.9699815377
0.9668008142
0.9708958715
0.9732467669
0.9738825193
0.9732023432
0.9716445436
0.9696814469
0.9676568204
0.9675667371
0.9699815377
0.9563986432
0.961669839
0.964678683
0.9654493849
0.9645640022
0.9625713586
0.9600737314
0.9575605373
0.9574465166
0.960551297
0.9563986432
0.961669839
0.964678683
0.9654493849
0.9645640022
0.9625713586
0.9600737314
0.9575605373
0.9574465166
0.960551297
0.9431308922
0.9498518458
0.9536605586
0.9546017379
0.9534694792
0.9509478177
0.9477993217
0.9447002691
0.9445581461
0.9485120685
0.9431308922
0.9498518458
0.9536605586
0.9546017379
0.9534694792
0.9509478177
0.9477993217
0.9447002691
0.9445581461
0.9485120685
0.9262940553
0.9347814851
0.9395550658
0.940710865
0.9392863739
0.9361293365
0.9321979448
0.9284039018
0.9282298558
0.9332167954
0.9262940553
0.9347814851
0.9395550658
0.940710865
0.9392863739
0.9361293365
0.9321979448
0.9284039018
0.9282298558
0.9332167954
0.9050425416
0.9156531012
0.9215790655
0.9230036707
0.9212400598
0.9173317026
0.9124725487
0.9078654006
0.9076567941
0.9138835134
0.9050425416
0.9156531012
0.9215790655
0.9230036707
0.9212400598
0.9173317026
0.9124725487
0.9078654006
0.9076567941
0.9138835134
0.8783770416
0.8914970163
0.8978105368
0.900540458
0.8983931541
0.8936135609
0.8866456721
0.8821340522
0.8818908206
0.8895811947
0.8783770416
0.8914970163
0.8978105368
0.900540458
0.8983931541
0.8936135609
0.8866456721
0.8821340522
0.8818908206
0.8895811947
0.8451439533
0.8611677171
0.8689510884
0.8721971219
0.8696300948
0.8638655032
0.85557716
0.8501137223
0.8498405555
0.8592236685
0.8451439533
0.8611677171
0.8689510884
0.8721971219
0.8696300948
0.8638655032
0.85557716
0.8501137223
0.8498405555
0.8592236685
0.8040558706
0.8233476246
0.8328198313
0.8366591776
0.8336543298
0.8252568465
0.8170892017
0.8105809311
0.8102905261
0.8215797827
0.8040558706
0.8233476246
0.8328198313
0.8366591776
0.8336543298
0.8252568465
0.8170892017
0.8105809311
0.8102905261
0.8215797827
0.753748725
0.7765808075
0.7879315386
0.7907405691
0.7872057667
0.7793904143
0.7698354452
0.7622353013
0.761952929
0.7753127523
0.753748725
0.7765808075
0.7879315386
0.7907405691
0.7872057667
0.7793904143
0.7698354452
0.7622353013
0.761952929
0.7753127523
0.6928988473
0.7193595673
0.7327052201
0.7361748734
0.7322662016
0.7233740985
0.7124602267
0.7038023682
0.7035717783
0.7190683761
0.6928988473
0.7193595673
0.7327052201
0.7361748734
0.7322662016
0.7233740985
0.7124602267
0.7038023682
0.7035717783
0.7190683761
0.6204328505
0.6502989095
0.6656173654
0.6698228396
0.6656686071
0.6558628048
0.6437710408
0.6342167539
0.6341068139
0.6516406378
0.6204328505
0.6502989095
0.6656173654
0.6698228396
0.6656686071
0.6558628048
0.6437710408
0.6342167539
0.6341068139
0.6516406378
0.5358735969
0.5684495205
0.5854911894
0.5904618806
0.5862790409
0.5759023119
0.5630317825
0.5529223103
0.5530323536
0.5722534762
0.5358735969
0.5684495205
0.5854911894
0.5904618806
0.5862790409
0.5759023119
0.5630317825
0.5529223103
0.5530323536
0.5722534762
0.4398726533
0.473816841
0.4919965039
0.4976726851
0.4937772327
0.4833990177
0.4704280865
0.4603320127
0.4607910353
0.4810067152
0.4398726533
0.473816841
0.4919965039
0.4976726851
0.4937772327
0.4833990177
0.4704280865
0.4603320127
0.4607910353
0.4810067152
0.3349744991
0.3681646641
0.3864547237
0.3926274604
0.3894184687
0.3798490891
0.367760046
0.3584874057
0.3594371911
0.3795357493
0.3349744991
0.3681646641
0.3864547237
0.3926274604
0.3894184687
0.3798490891
0.367760046
0.3584874057
0.3594371911
0.3795357493
0.2266220378
0.2561675854
0.2730439538
0.2792843839
0.2771735824
0.2693944926
0.2594009205
0.2519318747
0.2534761841
0.2719149239
0.2266220378
0.2561675854
0.2730439538
0.2792843839
0.2771735824
0.2693944926
0.2594009205
0.2519318747
0.2534761841
0.2719149239
0.1243145608
0.1468972333
0.1604378675
0.1660395462
0.1652878494
0.1602168938
0.1534955989
0.1487404446
0.1508323716
0.1657679923
0.1243145608
0.1468972333
0.1604378675
0.1660395462
0.1652878494
0.1602168938
0.1534955989
0.1487404446
0.1508323716
0.1657679923
0.04261975115
0.05540685983
0.06370122933
0.06769159664
0.06811700518
0.06610891147
0.06321085352
0.06149533289
0.0637280412
0.07339409314
0.04261975115
0.05540685983
0.06370122933
0.06769159664
0.06811700518
0.06610891147
0.06321085352
0.06149533289
0.0637280412
0.07339409314
0.00136613628
0.003698888677
0.005747603704
0.007069152767
0.007638091819
0.007664067284
0.007517062243
0.007716996608
0.008995745768
0.01241994027
0.00136613628
0.003698888677
0.005747603704
0.007069152767
0.007638091819
0.007664067284
0.007517062243
0.007716996608
0.008995745768
0.01241994027
0
0
0
0
0
0
0
0
0
0
0
0
0
0
0
0
0
0
0
0
0
0
0
0
0
0
0
0
0
0
0
0
0
0
0
0
0
0
0
0
1
1
1
1
1
1
1
1
1
1
1
1
1
1
0.9999998239
0.9999998337
0.9999998421
0.9999998494
0.9999998555
0.9999998604
0.9999998637
0.9999998239
0.9999998337
0.9999998421
0.9999998494
0.9999998555
0.9999998604
0.9999998637
0.9999718322
0.9999720982
0.9999723329
0.999972539
0.999972716
0.9999728591
0.9999729586
0.9999718322
0.9999720982
0.9999723329
0.999972539
0.999972716
0.9999728591
0.9999729586
0.9998835571
0.9998844193
0.9998851805
0.9998858499
0.999886425
0.9998868903
0.9998872137
0.9998835571
0.9998844193
0.9998851805
0.9998858499
0.999886425
0.9998868903
0.9998872137
0.9997129458
0.9997148651
0.9997165603
0.9997180514
0.9997193329
0.9997203699
0.9997210909
0.9997129458
0.9997148651
0.9997165603
0.9997180514
0.9997193329
0.9997203699
0.9997210909
0.9994314706
0.9994350644
0.9994382391
0.9994410321
0.9994434329
0.9994453756
0.9994467267
0.9994314706
0.9994350644
0.9994382391
0.9994410321
0.9994434329
0.9994453756
0.9994467267
0.9990023751
0.9990084618
0.9990138392
0.9990185705
0.9990226377
0.9990259292
0.9990282183
0.9990023751
0.9990084618
0.9990138392
0.9990185705
0.9990226377
0.9990259292
0.9990282183
0.9983784681
0.9983881233
0.9983966538
0.9984041601
0.9984106128
0.9984158354
0.9984194675
0.9983784681
0.9983881233
0.9983966538
0.9984041601
0.9984106128
0.9984158354
0.9984194675
0.997499354
0.9975139814
0.9975269058
0.9975382788
0.9975480561
0.9975559695
0.9975614733
0.997499354
0.9975139814
0.9975269058
0.9975382788
0.9975480561
0.9975559695
0.9975614733
0.9962879678
0.9963093889
0.9963283166
0.996344973
0.9963592927
0.9963708831
0.9963789442
0.9962879678
0.9963093889
0.9963283166
0.996344973
0.9963592927
0.9963708831
0.9963789442
0.9946462556
0.9946768203
0.9947038283
0.9947275958
0.9947480299
0.9947645693
0.9947760729
0.9946462556
0.9946768203
0.9947038283
0.9947275958
0.9947480299
0.9947645693
0.9947760729
0.9924498128
0.9924925381
0.9925302929
0.9925635187
0.9925920851
0.9926152074
0.9926312897
0.9924498128
0.9924925381
0.9925302929
0.9925635187
0.9925920851
0.9926152074
0.9926312897
0.9895412683
0.9896000097
0.9896519187
0.989697602
0.9897368796
0.9897686724
0.9897907857
0.9895412683
0.9896000097
0.9896519187
0.989697602
0.9897368796
0.9897686724
0.9897907857
0.9857221835
0.9858018436
0.9858722402
0.9859341953
0.9859874642
0.9860305831
0.9860605744
0.9857221835
0.9858018436
0.9858722402
0.9859341953
0.9859874642
0.9860305831
0.9860605744
0.9807432276
0.9808500103
0.9809443781
0.981027432
0.9810988434
0.9811566488
0.981196856
0.9807432276
0.9808500103
0.9809443781
0.981027432
0.9810988434
0.9811566488
0.981196856
0.9742924248
0.9744341368
0.9745593771
0.9746696055
0.9747643843
0.9748411066
0.9748944724
0.9742924248
0.9744341368
0.9745593771
0.9746696055
0.9747643843
0.9748411066
0.9748944724
0.9664247729
0.9661677537
0.9663324981
0.9664775002
0.9666021826
0.966703114
0.9667733203
0.9664247729
0.9661677537
0.9663324981
0.9664775002
0.9666021826
0.966703114
0.9667733203
0.9560505554
0.9560380894
0.9557875162
0.9559767281
0.9561394308
0.9562711436
0.9563627631
0.9560505554
0.9560380894
0.9557875162
0.9559767281
0.9561394308
0.9562711436
0.9563627631
0.9427739717
0.9427990203
0.9423394309
0.9425844637
0.9427951757
0.9429657596
0.943084421
0.9427739717
0.9427990203
0.9423394309
0.9425844637
0.9427951757
0.9429657596
0.943084421
0.9258776874
0.9259555473
0.9252765989
0.9255915787
0.9258624547
0.9260817549
0.9262343095
0.9258776874
0.9259555473
0.9252765989
0.9255915787
0.9258624547
0.9260817549
0.9262343095
0.9044994333
0.9046492115
0.9047708294
0.9041461999
0.9044918135
0.9047716366
0.9049663019
0.9044994333
0.9046492115
0.9047708294
0.9041461999
0.9044918135
0.9047716366
0.9049663019
0.8776204896
0.8778655422
0.8780701445
0.8772423724
0.8776798533
0.8780340813
0.8782805215
0.8776204896
0.8778655422
0.8780701445
0.8772423724
0.8776798533
0.8780340813
0.8782805215
0.8440658161
0.8444339292
0.8447460537
0.8437201029
0.8442690356
0.844713547
0.8450228198
0.8440658161
0.8444339292
0.8447460537
0.8437201029
0.8442690356
0.844713547
0.8450228198
0.8025262724
0.8030493154
0.8034971665
0.8022869815
0.8029688644
0.8035211011
0.8039053593
0.8025262724
0.8030493154
0.8034971665
0.8022869815
0.8029688644
0.8035211011
0.8039053593
0.7516191824
0.7523318081
0.7529461407
0.7515772512
0.7524142103
0.7530921442
0.7535639211
0.7516191824
0.7523318081
0.7529461407
0.7515772512
0.7524142103
0.7530921442
0.7535639211
0.6900114322
0.6909481825
0.6890958013
0.690271952
0.6912842632
0.6921043997
0.6926752243
0.6900114322
0.6909481825
0.6890958013
0.690271952
0.6912842632
0.6921043997
0.6926752243
0.6166392128
0.6178291238
0.6159176352
0.6173134845
0.6185152856
0.619489207
0.620167209
0.6166392128
0.6178291238
0.6159176352
0.6173134845
0.6185152856
0.619489207
0.620167209
0.5310689862
0.5288088166
0.5306417449
0.5322582648
0.5336506856
0.5347795069
0.5355655675
0.5310689862
0.5288088166
0.5306417449
0.5322582648
0.5336506856
0.5347795069
0.5355655675
0.4340510313
0.4319551834
0.4340070679
0.4358180164
0.4373789033
0.4386449697
0.4395269556
0.4340510313
0.4319551834
0.4340070679
0.4358180164
0.4373789033
0.4386449697
0.4395269556
0.324040806
0.3265085104
0.3286989577
0.3306342937
0.3323039605
0.3336593222
0.3346040745
0.324040806
0.3265085104
0.3286989577
0.3306342937
0.3323039605
0.3336593222
0.3346040745
0.2157472038
0.2181928803
0.2203680791
0.2222932825
0.2239567069
0.2253086936
0.2262519859
0.2157472038
0.2181928803
0.2203680791
0.2222932825
0.2239567069
0.2253086936
0.2262519859
0.1147451844
0.1168830055
0.1187914372
0.1204859923
0.1219542131
0.1231503047
0.123986283
0.1147451844
0.1168830055
0.1187914372
0.1204859923
0.1219542131
0.1231503047
0.123986283
0.03616568492
0.03758260588
0.038859865
0.04000355199
0.04100162091
0.04181952178
0.04239370941
0.03616568492
0.03758260588
0.038859865
0.04000355199
0.04100162091
0.04181952178
0.04239370941
0.0003344939871
0.0005070644439
0.0006898313042
0.0008743399506
0.001050798152
0.001205761089
0.001319970745
0.0003344939871
0.0005070644439
0.0006898313042
0.0008743399506
0.001050798152
0.001205761089
0.001319970745
0
0
0
0
0
0
0
0
0
0
0
0
0
0
0
0
0
0
0
0
0
0
0
0
0
0
0
0
0.9987136292
0.9938545045
0.9846882365
0.9704233965
0.950208462
0.9231546497
0.8883728997
0.8450294985
0.7924254311
0.7301047501
0.6579966805
0.5765942515
0.4871681148
0.3920068526
0.2946631454
0.200167531
0.1151473849
0.04775908616
0.007310067444
0
0
0
0
0
0
0
0
0
0
0
0
0
0
0
0
0.9987136292
0.9938545045
0.9846882365
0.9704233965
0.950208462
0.9231546497
0.8883728997
0.8450294985
0.7924254311
0.7301047501
0.6579966805
0.5765942515
0.4871681148
0.3920068526
0.2946631454
0.200167531
0.1151473849
0.04775908616
0.007310067444
0
0
0
0
0
0
0
0
0
0
0
0
0
0
0
0
0.9986965363
0.9938365058
0.9846700294
0.9704052076
0.9501904329
0.9231369022
0.8883555559
0.8450126879
0.7924092939
0.7300894384
0.6579823575
0.5765810891
0.487156289
0.3919965369
0.2946545012
0.2001606951
0.1151424537
0.04775609794
0.007308981794
0
0
0
0
0
0
0
0
0
0
0
0
0
0
0
0
0.9986965363
0.9938365058
0.9846700294
0.9704052076
0.9501904329
0.9231369022
0.8883555559
0.8450126879
0.7924092939
0.7300894384
0.6579823575
0.5765810891
0.487156289
0.3919965369
0.2946545012
0.2001606951
0.1151424537
0.04775609794
0.007308981794
0
0
0
0
0
0
0
0
0
0
0
0
0
0
0
0
0.9986365819
0.9937734549
0.9846062559
0.9703414996
0.9501272847
0.923074741
0.8882948087
0.844953808
0.7923527729
0.7300358089
0.657932191
0.5765349876
0.4871148691
0.3919604063
0.294624225
0.2001367524
0.1151251829
0.04774563211
0.007305179832
0
0
0
0
0
0
0
0
0
0
0
0
0
0
0
0
0.9986365819
0.9937734549
0.9846062559
0.9703414996
0.9501272847
0.923074741
0.8882948087
0.844953808
0.7923527729
0.7300358089
0.657932191
0.5765349876
0.4871148691
0.3919604063
0.294624225
0.2001367524
0.1151251829
0.04774563211
0.007305179832
0
0
0
0
0
0
0
0
0
0
0
0
0
0
0
0
0.9985176614
0.9936487352
0.9844801402
0.9702155209
0.9500024158
0.9229518247
0.8881746888
0.8448373811
0.7922410103
0.7299297641
0.6578329943
0.576443829
0.487032968
0.3918889641
0.2945643596
0.200089411
0.1150910342
0.04772493976
0.00729766453
0
0
0
0
0
0
0
0
0
0
0
0
0
0
0
0
0.9985176614
0.9936487352
0.9844801402
0.9702155209
0.9500024158
0.9229518247
0.8881746888
0.8448373811
0.7922410103
0.7299297641
0.6578329943
0.576443829
0.487032968
0.3918889641
0.2945643596
0.200089411
0.1150910342
0.04772493976
0.00729766453
0
0
0
0
0
0
0
0
0
0
0
0
0
0
0
0
0.9983185312
0.9934407815
0.9842699533
0.9700055842
0.9497943358
0.9227470016
0.8879745273
0.8446433743
0.7920547768
0.729753059
0.657667701
0.5762919307
0.4868964965
0.3917699215
0.2944646085
0.2000105299
0.1150341374
0.04769046639
0.007285149054
0
0
0
0
0
0
0
0
0
0
0
0
0
0
0
0
0.9983185312
0.9934407815
0.9842699533
0.9700055842
0.9497943358
0.9227470016
0.8879745273
0.8446433743
0.7920547768
0.729753059
0.657667701
0.5762919307
0.4868964965
0.3917699215
0.2944646085
0.2000105299
0.1150341374
0.04769046639
0.007285149054
0
0
0
0
0
0
0
0
0
0
0
0
0
0
0
0
0.9980112895
0.9931216923
0.9839476536
0.96968372
0.9494753357
0.9224330022
0.887667678
0.8443459627
0.7917692836
0.7294821746
0.6574143124
0.5760590781
0.4866872948
0.3915874401
0.2943117028
0.1998896196
0.1149469306
0.04763763613
0.007265981272
0
0
0
0
0
0
0
0
0
0
0
0
0
0
0
0
0.9980112895
0.9931216923
0.9839476536
0.96968372
0.9494753357
0.9224330022
0.887667678
0.8443459627
0.7917692836
0.7294821746
0.6574143124
0.5760590781
0.4866872948
0.3915874401
0.2943117028
0.1998896196
0.1149469306
0.04763763613
0.007265981272
0
0
0
0
0
0
0
0
0
0
0
0
0
0
0
0
0.9975595445
0.9926554655
0.9834771672
0.9692139773
0.9490098105
0.9219747907
0.887219909
0.8439119711
0.7913526877
0.7290868998
0.6570445714
0.5757193076
0.4863820402
0.3913211803
0.2940886047
0.1997132142
0.1148197102
0.04756058218
0.007238051019
0
0
0
0
0
0
0
0
0
0
0
0
0
0
0
0
0.9975595445
0.9926554655
0.9834771672
0.9692139773
0.9490098105
0.9219747907
0.887219909
0.8439119711
0.7913526877
0.7290868998
0.6570445714
0.5757193076
0.4863820402
0.3913211803
0.2940886047
0.1997132142
0.1148197102
0.04756058218
0.007238051019
0
0
0
0
0
0
0
0
0
0
0
0
0
0
0
0
0.9969162073
0.9919957651
0.9828122142
0.968550282
0.9483521474
0.9213274921
0.8865873789
0.8432989139
0.7907642122
0.7285285497
0.6565222977
0.5752393773
0.4859508746
0.3909451068
0.2937735096
0.1994640854
0.1146400677
0.04745181156
0.007198677528
0
0
0
0
0
0
0
0
0
0
0
0
0
0
0
0
0.9969162073
0.9919957651
0.9828122142
0.968550282
0.9483521474
0.9213274921
0.8865873789
0.8432989139
0.7907642122
0.7285285497
0.6565222977
0.5752393773
0.4859508746
0.3909451068
0.2937735096
0.1994640854
0.1146400677
0.04745181156
0.007198677528
0
0
0
0
0
0
0
0
0
0
0
0
0
0
0
0
0.9960207873
0.9910831122
0.9818935688
0.9676337428
0.9474440737
0.9204337895
0.8857140987
0.842452539
0.7899517901
0.7277577324
0.6558013002
0.5745768522
0.4853556877
0.3904259943
0.2933385984
0.1991202615
0.1143921901
0.04730179109
0.007144474904
0
0
0
0
0
0
0
0
0
0
0
0
0
0
0
0
0.9960207873
0.9910831122
0.9818935688
0.9676337428
0.9474440737
0.9204337895
0.8857140987
0.842452539
0.7899517901
0.7277577324
0.6558013002
0.5745768522
0.4853556877
0.3904259943
0.2933385984
0.1991202615
0.1143921901
0.04730179109
0.007144474904
0
0
0
0
0
0
0
0
0
0
0
0
0
0
0
0
0.9947960165
0.9898413767
0.9806456188
0.9663892723
0.946211335
0.9192206679
0.884528757
0.8413037545
0.7888491195
0.7267115579
0.6548227713
0.5736777139
0.4845479745
0.3897215652
0.2927484849
0.1986538097
0.1140559937
0.04709843986
0.007071194915
0
0
0
0
0
0
0
0
0
0
0
0
0
0
0
0
0.9947960165
0.9898413767
0.9806456188
0.9663892723
0.946211335
0.9192206679
0.884528757
0.8413037545
0.7888491195
0.7267115579
0.6548227713
0.5736777139
0.4845479745
0.3897215652
0.2927484849
0.1986538097
0.1140559937
0.04709843986
0.007071194915
0
0
0
0
0
0
0
0
0
0
0
0
0
0
0
0
0.9931436099
0.9881734252
0.978972063
0.964721363
0.9445595467
0.9175953519
0.8829407622
0.8397648023
0.7873719961
0.7253101654
0.6535120447
0.5724733885
0.4834661746
0.3887781797
0.2919582934
0.1980293325
0.1136060607
0.04682651408
0.006973549291
0
0
0
0
0
0
0
0
0
0
0
0
0
0
0
0
0.9931436099
0.9881734252
0.978972063
0.964721363
0.9445595467
0.9175953519
0.8829407622
0.8397648023
0.7873719961
0.7253101654
0.6535120447
0.5724733885
0.4834661746
0.3887781797
0.2919582934
0.1980293325
0.1136060607
0.04682651408
0.006973549291
0
0
0
0
0
0
0
0
0
0
0
0
0
0
0
0
0.9909389614
0.9859557505
0.9767505661
0.962508833
0.9423690392
0.9154402609
0.8808353319
0.837724511
0.7854137682
0.7234524216
0.6517745833
0.5708770729
0.4820323861
0.3875279875
0.2909112943
0.1972021251
0.1130103462
0.04646687219
0.006845019244
0
0
0
0
0
0
0
0
0
0
0
0
0
0
0
0
0.9909389614
0.9859557505
0.9767505661
0.962508833
0.9423690392
0.9154402609
0.8808353319
0.837724511
0.7854137682
0.7234524216
0.6517745833
0.5708770729
0.4820323861
0.3875279875
0.2909112943
0.1972021251
0.1130103462
0.04646687219
0.006845019244
0
0
0
0
0
0
0
0
0
0
0
0
0
0
0
0
0.9880245632
0.9830318784
0.9738261645
0.9595983296
0.9394884859
0.9126067811
0.8780674348
0.8350424455
0.7828397386
0.7210106259
0.6494910447
0.5687792218
0.4801483366
0.3858854434
0.2895360213
0.1961159419
0.1122286259
0.04599561482
0.006677669799
0
0
0
0
0
0
0
0
0
0
0
0
0
0
0
0
0.9880245632
0.9830318784
0.9738261645
0.9595983296
0.9394884859
0.9126067811
0.8780674348
0.8350424455
0.7828397386
0.7210106259
0.6494910447
0.5687792218
0.4801483366
0.3858854434
0.2895360213
0.1961159419
0.1122286259
0.04599561482
0.006677669799
0
0
0
0
0
0
0
0
0
0
0
0
0
0
0
0
0.9842019239
0.9792043175
0.970003206
0.955796366
0.9357270901
0.9089076325
0.8744543736
0.8315417505
0.7794803233
0.7178240482
0.6465112674
0.5660420558
0.47769049
0.3837430885
0.2877427964
0.1947003242
0.1112106653
0.04538310848
0.006462003619
0
0
0
0
0
0
0
0
0
0
0
0
0
0
0
0
0.9842019239
0.9792043175
0.970003206
0.955796366
0.9357270901
0.9089076325
0.8744543736
0.8315417505
0.7794803233
0.7178240482
0.6465112674
0.5660420558
0.47769049
0.3837430885
0.2877427964
0.1947003242
0.1112106653
0.04538310848
0.006462003619
0
0
0
0
0
0
0
0
0
0
0
0
0
0
0
0
0.9792217571
0.9742248108
0.9650355981
0.9508596638
0.930845102
0.9041076094
0.8697667951
0.8270004861
0.7751227794
0.7136911256
0.6426470208
0.5624929561
0.4745041796
0.3809665144
0.2854196095
0.1928674648
0.1098941173
0.04459292822
0.006186917704
0
0
0
0
0
0
0
0
0
0
0
0
0
0
0
0
0.9792217571
0.9742248108
0.9650355981
0.9508596638
0.930845102
0.9041076094
0.8697667951
0.8270004861
0.7751227794
0.7136911256
0.6426470208
0.5624929561
0.4745041796
0.3809665144
0.2854196095
0.1928674648
0.1098941173
0.04459292822
0.006186917704
0
0
0
0
0
0
0
0
0
0
0
0
0
0
0
0
0.9727722378
0.9677826727
0.958615171
0.944483609
0.9245424705
0.8979125015
0.8637179449
0.8211412858
0.7695013471
0.7083601804
0.6376634035
0.5579166526
0.4703966989
0.3773884665
0.2824273383
0.1905086286
0.1082021977
0.0435808022
0.005839873684
0
0
0
0
0
0
0
0
0
0
0
0
0
0
0
0
0.9727722378
0.9677826727
0.958615171
0.944483609
0.9245424705
0.8979125015
0.8637179449
0.8211412858
0.7695013471
0.7083601804
0.6376634035
0.5579166526
0.4703966989
0.3773884665
0.2824273383
0.1905086286
0.1082021977
0.0435808022
0.005839873684
0
0
0
0
0
0
0
0
0
0
0
0
0
0
0
0
0.9644652093
0.959491087
0.9503580388
0.9362887171
0.9164455233
0.8899560918
0.8559510689
0.8136192499
0.7622857348
0.701518609
0.6312688572
0.5520461951
0.465129366
0.3728021358
0.2785943864
0.1874902363
0.1060412775
0.04229372216
0.005407469148
0
0
0
0
0
0
0
0
0
0
0
0
0
0
0
0
0.9644652093
0.959491087
0.9503580388
0.9362887171
0.9164455233
0.8899560918
0.8559510689
0.8136192499
0.7622857348
0.701518609
0.6312688572
0.5520461951
0.465129366
0.3728021358
0.2785943864
0.1874902363
0.1060412775
0.04229372216
0.005407469148
0
0
0
0
0
0
0
0
0
0
0
0
0
0
0
0
0.9538204076
0.9488714261
0.9397890262
0.9258051902
0.9060917625
0.8797853138
0.8460250497
0.804008174
0.7530680588
0.6927806665
0.6231039435
0.5445528769
0.4584087529
0.3669538487
0.2737109757
0.1836498711
0.1032986713
0.04066951873
0.004876720059
0
0
0
0
0
0
0
0
0
0
0
0
0
0
0
0
0.9538204076
0.9488714261
0.9397890262
0.9258051902
0.9060917625
0.8797853138
0.8460250497
0.804008174
0.7530680588
0.6927806665
0.6231039435
0.5445528769
0.4584087529
0.3669538487
0.2737109757
0.1836498711
0.1032986713
0.04066951873
0.004876720059
0
0
0
0
0
0
0
0
0
0
0
0
0
0
0
0
0.9402481277
0.935336017
0.9263245802
0.9124559986
0.8929132113
0.8668440074
0.8333987138
0.7917855496
0.7413486854
0.6816743067
0.6127293513
0.5350355897
0.4498775713
0.3595356604
0.2675236058
0.1787927284
0.09984114585
0.03863741896
0.00423755727
0
0
0
0
0
0
0
0
0
0
0
0
0
0
0
0
0.9402481277
0.935336017
0.9263245802
0.9124559986
0.8929132113
0.8668440074
0.8333987138
0.7917855496
0.7413486854
0.6816743067
0.6127293513
0.5350355897
0.4498775713
0.3595356604
0.2675236058
0.1787927284
0.09984114585
0.03863741896
0.00423755727
0
0
0
0
0
0
0
0
0
0
0
0
0
0
0
0
0.9230313802
0.9181704013
0.9092552071
0.8955395355
0.8762193733
0.8504563259
0.8174148562
0.7763173773
0.7265220071
0.6676281057
0.5996141609
0.5230106301
0.4391062251
0.3501788485
0.2597306588
0.1726894576
0.09551505922
0.03612044984
0.00348733903
0
0
0
0
0
0
0
0
0
0
0
0
0
0
0
0
0.9230313802
0.9181704013
0.9092552071
0.8955395355
0.8762193733
0.8504563259
0.8174148562
0.7763173773
0.7265220071
0.6676281057
0.5996141609
0.5230106301
0.4391062251
0.3501788485
0.2597306588
0.1726894576
0.09551505922
0.03612044984
0.00348733903
0
0
0
0
0
0
0
0
0
0
0
0
0
0
0
0
0.9013096436
0.8965171951
0.8877295321
0.8742139371
0.8551818949
0.8298118813
0.7972860491
0.7568448346
0.7078641697
0.6499602537
0.5831263143
0.5079038662
0.4255868883
0.3384501032
0.2499808704
0.1650770298
0.09014965891
0.03304108945
0.002638636086
0
0
0
0
0
0
0
0
0
0
0
0
0
0
0
0
0.9013096436
0.8965171951
0.8877295321
0.8742139371
0.8551818949
0.8298118813
0.7972860491
0.7568448346
0.7078641697
0.6499602537
0.5831263143
0.5079038662
0.4255868883
0.3384501032
0.2499808704
0.1650770298
0.09014965891
0.03304108945
0.002638636086
0
0
0
0
0
0
0
0
0
0
0
0
0
0
0
0
0.8740680231
0.8693653549
0.8607437701
0.8474868417
0.8288246948
0.8039563707
0.7720859401
0.7324764505
0.6845263381
0.6278731302
0.5625287191
0.4890485871
0.4087333089
0.3238534698
0.2378775555
0.1556653234
0.08356600657
0.029332381
0.001732221581
0
0
0
0
0
0
0
0
0
0
0
0
0
0
0
0
0.8740680231
0.8693653549
0.8607437701
0.8474868417
0.8288246948
0.8039563707
0.7720859401
0.7324764505
0.6845263381
0.6278731302
0.5625287191
0.4890485871
0.4087333089
0.3238534698
0.2378775555
0.1556653234
0.08356600657
0.029332381
0.001732221581
0
0
0
0
0
0
0
0
0
0
0
0
0
0
0
0
0.8401382897
0.835551315
0.8271430565
0.814217
0.7960259335
0.771794009
0.7407522978
0.7021919482
0.6555395382
0.6004593497
0.5369866967
0.465694542
0.3878916036
0.3058430307
0.2229932507
0.144153718
0.0755954035
0.02495792056
0.0008581717404
0
0
0
0
0
0
0
0
0
0
0
0
0
0
0
0
0.8401382897
0.835551315
0.8271430565
0.814217
0.7960259335
0.771794009
0.7407522978
0.7021919482
0.6555395382
0.6004593497
0.5369866967
0.465694542
0.3878916036
0.3058430307
0.2229932507
0.144153718
0.0755954035
0.02495792056
0.0008581717404
0
0
0
0
0
0
0
0
0
0
0
0
0
0
0
0
0.7982222915
0.7937824708
0.7856450722
0.7731381135
0.7555421245
0.732111976
0.702111886
0.6648676699
0.6198407749
0.5667287148
0.5055958987
0.4370369194
0.3623703631
0.283854144
0.2049020203
0.1302643025
0.06611320289
0.01994581605
0.000189325778
0
0
0
0
0
0
0
0
0
0
0
0
0
0
0
0
0.7982222915
0.7937824708
0.7856450722
0.7731381135
0.7555421245
0.732111976
0.702111886
0.6648676699
0.6198407749
0.5667287148
0.5055958987
0.4370369194
0.3623703631
0.283854144
0.2049020203
0.1302643025
0.06611320289
0.01994581605
0.000189325778
0
0
0
0
0
0
0
0
0
0
0
0
0
0
0
0
0.7469540226
0.7426992613
0.7349021601
0.7229210037
0.7060703563
0.683642678
0.6549427507
0.6193388904
0.5763353771
0.5256705902
0.4674446755
0.4022786308
0.3315027076
0.2573650478
0.1832402883
0.1138014918
0.05509662662
0.01444395535
0
0
0
0
0
0
0
0
0
0
0
0
0
0
0
0
0
0.7469540226
0.7426992613
0.7349021601
0.7229210037
0.7060703563
0.683642678
0.6549427507
0.6193388904
0.5763353771
0.5256705902
0.4674446755
0.4022786308
0.3315027076
0.2573650478
0.1832402883
0.1138014918
0.05509662662
0.01444395535
0
0
0
0
0
0
0
0
0
0
0
0
0
0
0
0
0
0.6850245231
0.680999974
0.6736259628
0.6622979926
0.646372297
0.6251872148
0.5980969578
0.5645216046
0.5240175946
0.4763730277
0.4217313942
0.3607454066
0.2947586478
0.2260058621
0.1578117272
0.0947519107
0.04271860381
0.00880661365
0
0
0
0
0
0
0
0
0
0
0
0
0
0
0
0
0
0.6850245231
0.680999974
0.6736259628
0.6622979926
0.646372297
0.6251872148
0.5980969578
0.5645216046
0.5240175946
0.4763730277
0.4217313942
0.3607454066
0.2947586478
0.2260058621
0.1578117272
0.0947519107
0.04271860381
0.00880661365
0
0
0
0
0
0
0
0
0
0
0
0
0
0
0
0
0
0.6114035971
0.6076621801
0.6008083431
0.5902830334
0.5754931969